REMARK SMILES Nc1ncnc2c1ncn2[C@@H]1O[C@H](CO[P@](=O)(O)O[P@@](=O)(O)OP(=O)(O)O)[C@@H](O)[C@H]1O
REMARK SMILES IDX 16 1 17 2 15 3 14 4 13 5 11 6 30 7 12 8 28 9 10 10 4 11 3 12
REMARK SMILES IDX 5 13 2 14 6 15 7 16 8 17 9 18 1 19 31 22 29 24 18 26 19 28
REMARK SMILES IDX 20 29 21 30 22 31 23 33 24 34 25 35 26 36 27 38
REMARK H PARENT 1 20 1 21 31 23 29 25 18 27 22 32 26 37 27 39
ROOT
ATOM      1  P1  UNL     1       2.681  -0.673  -0.012  1.00  0.00     0.481 P 
ATOM      2  O3  UNL     1       2.314  -1.444   1.246  1.00  0.00    -0.228 OA
ENDROOT
BRANCH   1   3
ATOM      3  O2  UNL     1       1.329   0.217  -0.497  1.00  0.00    -0.284 OA
BRANCH   3   4
ATOM      4  C10 UNL     1       0.776   0.896   0.561  1.00  0.00     0.208 C 
BRANCH   4   5
ATOM      5  C9  UNL     1      -0.441   1.705   0.158  1.00  0.00     0.179 C 
ATOM      6  C6  UNL     1      -2.639   1.545   0.072  1.00  0.00     0.253 C 
ATOM      7  C7  UNL     1      -2.328   1.771   1.540  1.00  0.00     0.195 C 
ATOM      8  O1  UNL     1      -1.466   0.963  -0.367  1.00  0.00    -0.347 OA
ATOM      9  C8  UNL     1      -0.952   2.391   1.401  1.00  0.00     0.179 C 
BRANCH   6  10
ATOM     10  N3  UNL     1      -3.792   0.703  -0.130  1.00  0.00    -0.285 N 
ATOM     11  C1  UNL     1      -3.291  -2.635  -1.404  1.00  0.00     0.226 A 
ATOM     12  N1  UNL     1      -4.591  -3.023  -1.425  1.00  0.00    -0.217 NA
ATOM     13  N2  UNL     1      -2.919  -1.407  -0.987  1.00  0.00    -0.216 NA
ATOM     14  C2  UNL     1      -5.561  -2.174  -1.022  1.00  0.00     0.155 A 
ATOM     15  C4  UNL     1      -3.870  -0.562  -0.588  1.00  0.00     0.167 A 
ATOM     16  C3  UNL     1      -5.205  -0.917  -0.593  1.00  0.00     0.150 A 
ATOM     17  N4  UNL     1      -5.910   0.117  -0.147  1.00  0.00    -0.231 NA
ATOM     18  C5  UNL     1      -5.049   1.102   0.135  1.00  0.00     0.204 A 
BRANCH  14  19
ATOM     19  N5  UNL     1      -6.939  -2.523  -1.022  1.00  0.00    -0.382 N 
ATOM     20  H15 UNL     1      -7.525  -2.297  -0.189  1.00  0.00     0.158 HD
ATOM     21  H16 UNL     1      -7.410  -3.003  -1.823  1.00  0.00     0.158 HD
ENDBRANCH  14  19
ENDBRANCH   6  10
BRANCH   7  22
ATOM     22  O13 UNL     1      -3.231   2.646   2.131  1.00  0.00    -0.386 OA
ATOM     23  H14 UNL     1      -3.480   2.328   3.054  1.00  0.00     0.211 HD
ENDBRANCH   7  22
BRANCH   9  24
ATOM     24  O12 UNL     1      -1.127   3.738   1.128  1.00  0.00    -0.387 OA
ATOM     25  H13 UNL     1      -0.855   3.995   0.209  1.00  0.00     0.211 HD
ENDBRANCH   9  24
ENDBRANCH   4   5
ENDBRANCH   3   4
ENDBRANCH   1   3
BRANCH   1  26
ATOM     26  O4  UNL     1       4.017   0.333   0.242  1.00  0.00    -0.302 OA
ATOM     27  H9  UNL     1       3.779   1.228  -0.141  1.00  0.00     0.223 HD
ENDBRANCH   1  26
BRANCH   1  28
ATOM     28  O5  UNL     1       3.119  -1.809  -1.187  1.00  0.00    -0.184 OA
BRANCH  28  29
ATOM     29  P2  UNL     1       4.792  -2.032  -1.083  1.00  0.00     0.490 P 
ATOM     30  O6  UNL     1       5.221  -3.434  -1.387  1.00  0.00    -0.227 OA
BRANCH  29  31
ATOM     31  O7  UNL     1       5.574  -1.007  -2.198  1.00  0.00    -0.302 OA
ATOM     32  H10 UNL     1       5.522  -0.093  -1.812  1.00  0.00     0.223 HD
ENDBRANCH  29  31
BRANCH  29  33
ATOM     33  O8  UNL     1       5.317  -1.594   0.472  1.00  0.00    -0.185 OA
BRANCH  33  34
ATOM     34  P3  UNL     1       6.879  -0.959   0.433  1.00  0.00     0.478 P 
ATOM     35  O9  UNL     1       7.308  -0.574  -0.967  1.00  0.00    -0.228 OA
BRANCH  34  36
ATOM     36  O10 UNL     1       7.015   0.427   1.391  1.00  0.00    -0.302 OA
ATOM     37  H11 UNL     1       7.343   1.226   0.872  1.00  0.00     0.223 HD
ENDBRANCH  34  36
BRANCH  34  38
ATOM     38  O11 UNL     1       7.995  -2.145   0.949  1.00  0.00    -0.302 OA
ATOM     39  H12 UNL     1       8.898  -1.696   0.882  1.00  0.00     0.223 HD
ENDBRANCH  34  38
ENDBRANCH  33  34
ENDBRANCH  29  33
ENDBRANCH  28  29
ENDBRANCH   1  28
TORSDOF 15
