REMARK SMILES N[C@@H](CCC(=O)O)C(=O)O
REMARK SMILES IDX 3 1 4 2 5 3 6 4 7 5 2 7 8 8 9 9 10 10 1 12
REMARK H PARENT 7 6 10 11 1 13 1 14
ROOT
ATOM      1  C1  UNL     1       0.132  -0.377  -0.932  1.00  0.00     0.042 C 
ENDROOT
BRANCH   1   2
ATOM      2  C2  UNL     1       1.456  -0.990  -0.532  1.00  0.00     0.125 C 
BRANCH   2   3
ATOM      3  C3  UNL     1       2.218   0.019   0.277  1.00  0.00     0.303 C 
ATOM      4  O1  UNL     1       2.929  -0.256   1.247  1.00  0.00    -0.252 OA
BRANCH   3   5
ATOM      5  O2  UNL     1       2.132   1.379  -0.078  1.00  0.00    -0.481 OA
ATOM      6  H5  UNL     1       2.961   1.974  -0.085  1.00  0.00     0.296 HD
ENDBRANCH   3   5
ENDBRANCH   2   3
ENDBRANCH   1   2
BRANCH   1   7
ATOM      7  C4  UNL     1      -0.695   0.008   0.266  1.00  0.00     0.162 C 
BRANCH   7   8
ATOM      8  C5  UNL     1      -1.970   0.600  -0.266  1.00  0.00     0.320 C 
ATOM      9  O3  UNL     1      -3.099   0.132   0.063  1.00  0.00    -0.251 OA
BRANCH   8  10
ATOM     10  O4  UNL     1      -1.982   1.677  -1.135  1.00  0.00    -0.480 OA
ATOM     11  H7  UNL     1      -2.672   2.413  -1.050  1.00  0.00     0.296 HD
ENDBRANCH   8  10
ENDBRANCH   7   8
BRANCH   7  12
ATOM     12  N1  UNL     1      -1.114  -1.147   1.052  1.00  0.00    -0.318 NA
ATOM     13  H8  UNL     1      -1.457  -1.873   0.375  1.00  0.00     0.119 HD
ATOM     14  H9  UNL     1      -1.919  -0.810   1.648  1.00  0.00     0.119 HD
ENDBRANCH   7  12
ENDBRANCH   1   7
TORSDOF 7
